# vtk DataFile Version 2.0
DummyMesh output
ASCII
DATASET UNSTRUCTURED_GRID
POINTS 392 double
-10 10 0
-10 -10 0
-10 8 0
-10 6 0
-10 4 0
-10 2 0
-10 0 0
-10 -2 0
-10 -4 0
-10 -6 0
-10 -8 0
-10 -10 30
-10 -10 28
-10 -10 26
-10 -10 24
-10 -10 22
-10 -10 20
-10 -10 18
-10 -10 16
-10 -10 14
-10 -10 12
-10 -10 10
-10 -10 8
-10 -10 6
-10 -10 4
-10 -10 2
-10 10 30
-10 8 30
-10 6 30
-10 4 30
-10 2 30
-10 0 30
-10 -2 30
-10 -4 30
-10 -6 30
-10 -8 30
-10 10 28
-10 10 26
-10 10 24
-10 10 22
-10 10 20
-10 10 18
-10 10 16
-10 10 14
-10 10 12
-10 10 10
-10 10 8
-10 10 6
-10 10 4
-10 10 2
10 -10 0
-8 -10 0
-6 -10 0
-4 -10 0
-2 -10 0
-5.02202e-13 -10 0
2 -10 0
4 -10 0
6 -10 0
8 -10 0
10 -10 30
10 -10 28
10 -10 26
10 -10 24
10 -10 22
10 -10 20
10 -10 18
10 -10 16
10 -10 14
10 -10 12
10 -10 10
10 -10 8
10 -10 6
10 -10 4
10 -10 2
-8 -10 30
-6 -10 30
-4 -10 30
-2 -10 30
-5.02202e-13 -10 30
2 -10 30
4 -10 30
6 -10 30
8 -10 30
10 10 0
10 -8 0
10 -6 0
10 -4 0
10 -2 0
10 0 0
10 2 0
10 4 0
10 6 0
10 8 0
10 10 30
10 10 28
10 10 26
10 10 24
10 10 22
10 10 20
10 10 18
10 10 16
10 10 14
10 10 12
10 10 10
10 10 8
10 10 6
10 10 4
10 10 2
10 -8 30
10 -6 30
10 -4 30
10 -2 30
10 0 30
10 2 30
10 4 30
10 6 30
10 8 30
8 10 0
6 10 0
4 10 0
2 10 0
0 10 0
-2 10 0
-4 10 0
-6 10 0
-8 10 0
8 10 30
6 10 30
4 10 30
2 10 30
0 10 30
-2 10 30
-4 10 30
-6 10 30
-8 10 30
-1.08917 0.276402 0
2.04882 -5.43547 0
4.70833 2.02083 0
-5.13374 0.452636 0
3.70833 6.50298 0
6.45918 -3.79082 0
-6.30668 6.05067 0
-7.24337 -6.39321 0
3 -1.75 0
1.64069 2.69795 0
5 -6.75 0
6.75 5 0
-4.36542 3.17565 0
-3.49492 -3.36015 0
-7.36904 -2.44324 0
5.96668 -0.87096 0
0.120344 6.39473 0
-3 7.5 0
-0.414298 -8.02113 0
-3.40644 -7.37995 0
-0.220086 -2.96703 0
7.75 0.625 0
-8.34222 0.641312 0
-1.24909 3.49205 0
-1.08917 0.276402 30
2.04882 -5.43547 30
4.70833 2.02083 30
-5.13374 0.452636 30
3.70833 6.50298 30
6.45918 -3.79082 30
-6.30668 6.05067 30
-7.24337 -6.39321 30
3 -1.75 30
1.64069 2.69795 30
5 -6.75 30
6.75 5 30
-4.36542 3.17565 30
-3.49492 -3.36015 30
-7.36904 -2.44324 30
5.96668 -0.87096 30
0.120344 6.39473 30
-3 7.5 30
-0.414298 -8.02113 30
-3.40644 -7.37995 30
-0.220086 -2.96703 30
7.75 0.625 30
-8.34222 0.641312 30
-1.24909 3.49205 30
0.277987 10 19.5043
2.23517e-07 10 9.5
-1.91254 10 22.8593
2.44444 10 23.1111
-7.42339 10 16.2467
6.86806 10 16.217
-5 10 7.75
4.75 10 7.9
-1 10 4.75
0.21224 10 13.2933
-6.20347 10 24.1211
-3.7357 10 18.8828
4.09046 10 19.6568
-2.81865 10 11.0026
2.82071 10 10.5536
6.96235 10 23.9767
5.94381 10 3.43353
-5.5 10 3.875
6.83786 10 11.399
-6.87813 10 11.5779
0.0361318 10 27.1613
3.65323 10 26.886
2.27778 10 16.8194
-3.70858 10 14.7552
2 10 6.25
-7.37704 10 20.2273
4.08743 10 13.5856
2.11235 10 2.61119
-7.23223 10 27.4194
-3.93221 10 27.2727
7.49254 10 20.2778
6.94468 10 27.7349
-7.5 10 6.875
-2.5 10 8.625
7.5 10 6.875
-1.17302 10 16.8366
10 0.421296 18.8877
10 1.43026 23.1081
10 -2.84473 24.7979
10 3.73745 16.2767
10 -3.83069 16.9686
10 -4.76987 8.1019
10 5 7.75
10 3.60137 12.2744
10 -3.702 12.2485
10 1.34379 4.70781
10 6.20415 24.1318
10 -0.0295542 14.8921
10 -6.22222 21.5556
10 -6.56124 26.2253
10 5.5 3.875
10 -5.94598 3.44017
10 -0.213075 27.8696
10 4.30331 20.2774
10 -7.46767 17.3936
10 7.14776 17.6064
10 -2 6.25
10 -7.14598 10.7516
10 7.13571 10.7478
10 -2.11277 2.61121
10 7.23137 27.4202
10 3.86792 27.2946
10 -2.19757 20.9823
10 7.6869 21.1302
10 7.3008 14.1382
10 -7.37691 14.1395
10 2.5 8.625
10 7.5 6.875
10 -2.13171 9.26068
10 -7.5 6.875
0.124044 -10 11.5394
-2.23517e-07 -10 20.5
1.71003 -10 7.35058
-2.76264 -10 5.59394
-3.75851 -10 13.1305
7.35865 -10 13.8066
-5 -10 22.25
5 -10 22.25
-3.80205 -10 17.9714
1 -10 25.25
-2.23517e-07 -10 15.75
6.76587 -10 6.102
3.62146 -10 11.2114
2.84722 -10 18.9028
-6.22222 -10 8.44444
-6.11111 -10 4.22222
5.5 -10 26.125
-5.94598 -10 26.5598
6.87608 -10 18.4124
0.0316283 -10 2.62482
3.67848 -10 15.1959
-7.47505 -10 12.608
-2 -10 23.75
7.33453 -10 9.82628
-7.15297 -10 19.2437
-2.11277 -10 27.3888
7.23449 -10 2.58298
3.8684 -10 2.7113
-2.18186 -10 9.21177
-7.38931 -10 15.9022
7.5 -10 23.125
2.5 -10 21.375
-7.5 -10 23.125
-10 0.277987 19.5043
-10 2.23517e-07 9.5
-10 -1.91254 22.8593
-10 2.44444 23.1111
-10 -7.42339 16.2467
-10 6.86806 16.217
-10 5 7.75
-10 -5 7.75
-10 -1 4.75
-10 0.215933 13.2955
-10 -6.20347 24.1211
-10 -3.7357 18.8828
-10 4.09046 19.6568
-10 -2.81865 11.0026
-10 2.83502 10.5558
-10 6.96235 23.9767
-10 -5.5 3.875
-10 5.94598 3.44017
-10 6.80866 11.5602
-10 -6.87813 11.5779
-10 0.0361318 27.1613
-10 3.65323 26.886
-10 2.27778 16.8194
-10 -3.70858 14.7552
-10 2 6.25
-10 -7.37704 20.2273
-10 4.09898 13.5988
-10 2.11277 2.61121
-10 -7.23223 27.4194
-10 -3.93221 27.2727
-10 7.49254 20.2778
-10 6.94468 27.7349
-10 7.86173 8.83704
-10 -2.5 8.625
-10 -7.5 6.875
-10 7.83612 6.59052
-10 -1.17302 16.8366
4.784 8.00714 27.199
6.28805 3.13497 26.3134
5.92372 6.10129 21.494
0.189345 5.77642 24.3772
7.9473 8.50736 28.4766
7.94398 8.21734 19.1185
5.14195 -2.13726 26.325
1.17028 5.12214 16.5987
6.02637 4.87987 14.2298
-6.13007 6.45112 26.009
-6.87306 -1.55819 20.2384
-5.49897 1.32781 25.9186
5.83032 -1.04906 19.5168
-6.71866 4.11104 17.704
-1.275 -6.52356 25.8867
-6.03578 -4.06553 26.2615
-7.07275 6.99811 22.1777
7.01676 -6.80202 24.123
-6.19038 -2.10376 13.0178
6.48379 -6.15404 15.6286
2.15877 -7.88741 27.54
8.27314 -7.88424 27.7947
-8.6386 8.6386 28.6386
6.36262 6.38234 8.72465
2.0885 -6.49479 10.8058
-6.31715 4.46278 11.0998
-6.60303 -6.49271 21.8448
-0.818243 6.79312 8.37508
-3.72224 -5.71137 7.75005
-7.58134 -6.99621 13.8535
6.68009 -6.92489 9.32637
7.69457 7.78253 4.0451
-6.04208 1.82948 4.30496
-8.43077 7.94111 8.77455
5.12363 -0.276707 3.14914
0.484728 -4.8279 3.90468
-8.53982 -8.60342 28.655
3.35205 6.18612 4.09824
-3.47909 6.6119 2.70721
-7.6548 -7.45338 3.15823
6.1726 -6.06685 3.90677
-7.1336 7.03961 5.54029
7.5901 3.20333 2.62485
6.52977 -0.749685 8.84509
-7.40856 -1.58149 8.17876
-0.850856 1.13635 2.90792
-2.917 -6.25627 14.4734
3.02492 -6.82077 22.5748
0.474432 -0.380203 26.7087
1.78185 -6.85751 17.694
8.10842 -4.18068 28.0135
-1.34813 0.418701 18.038
-3.46365 -7.20824 2.04097
-0.083291 0.0540296 9.95836
-5.86555 -1.86909 2.58494
-7.60977 8.0521 1.99112
5.05841 7.43994 16.9433
8.1117 -1.89349 23.6975
-2.19925 -4.75042 21.1824
-3.5192 4.8742 28.1355
-7.94107 7.47683 14.0616
-5.61217 -7.77695 10.7827
-8.08657 -5.75977 10.6838
8.32011 8.35935 25.8372
-8.13559 7.83625 18.7432
-6.63868 -5.21984 17.4593
-8.61611 8.48117 25.698
-7.63345 4.5997 1.81998

CELLS   1129 5645
4 27 318 36 346 
4 37 318 302 390 
4 36 318 37 390 
4 38 390 302 39 
4 37 390 302 38 
4 12 360 315 35 
4 30 31 307 182 
4 30 307 308 182 
4 29 30 308 182 
4 292 317 299 388 
4 41 388 317 292 
4 11 12 35 75 
4 26 27 36 135 
4 14 297 286 15 
4 13 286 14 297 
4 15 286 312 297 
4 40 317 41 209 
4 39 317 40 209 
4 32 33 316 174 
4 32 316 307 174 
4 31 32 307 174 
4 36 346 318 390 
4 34 35 315 167 
4 34 315 316 167 
4 33 34 316 167 
4 16 17 312 278 
4 15 16 312 278 
4 17 291 312 278 
4 290 299 302 340 
4 299 302 340 317 
4 39 340 302 317 
4 287 298 334 289 
4 287 323 334 298 
4 287 334 290 289 
4 287 290 337 299 
4 291 312 389 298 
4 291 389 310 298 
4 298 310 323 389 
4 27 36 135 346 
4 289 297 298 350 
4 297 350 312 298 
4 12 35 75 360 
4 28 308 166 29 
4 28 308 318 166 
4 27 318 166 28 
4 290 333 302 308 
4 302 318 308 333 
4 297 316 315 339 
4 289 316 297 339 
4 289 307 316 339 
4 12 315 271 13 
4 13 315 271 297 
4 36 37 212 390 
4 35 315 167 360 
4 31 174 307 182 
4 39 302 340 390 
4 41 292 188 388 
4 41 209 317 388 
4 289 290 307 335 
4 290 308 307 335 
4 299 340 388 317 
4 27 166 318 346 
4 292 388 299 337 
4 38 194 390 39 
4 37 194 390 38 
4 302 390 318 333 
4 15 312 286 278 
4 29 182 308 166 
4 33 316 174 167 
4 17 291 278 283 
4 36 212 346 390 
4 12 271 315 360 
4 39 209 340 317 
4 291 310 389 353 
4 286 350 312 297 
4 36 346 212 135 
4 182 307 308 335 
4 278 291 312 389 
4 290 299 340 337 
4 35 360 167 75 
4 287 323 337 334 
4 287 337 290 334 
4 166 346 390 318 
4 298 389 323 334 
4 289 350 298 334 
4 13 271 286 297 
4 174 316 307 339 
4 167 315 316 339 
4 298 312 389 350 
4 290 302 333 340 
4 27 166 346 135 
4 41 188 209 388 
4 310 323 389 342 
4 289 297 350 339 
4 209 317 388 340 
4 12 271 360 75 
4 166 308 318 333 
4 289 290 335 334 
4 188 388 292 337 
4 37 212 390 194 
4 271 297 315 339 
4 299 388 340 337 
4 39 340 194 390 
4 302 390 333 340 
4 167 315 271 360 
4 290 308 335 333 
4 283 291 389 353 
4 289 307 339 335 
4 278 312 286 350 
4 174 335 307 182 
4 278 283 291 389 
4 166 390 333 318 
4 166 212 390 346 
4 39 340 209 194 
4 167 339 316 174 
4 310 342 389 353 
4 278 389 312 350 
4 135 212 166 346 
4 166 182 308 335 
4 298 389 334 350 
4 271 286 297 350 
4 323 334 342 337 
4 75 167 271 360 
4 323 334 389 342 
4 289 350 334 339 
4 290 335 337 340 
4 167 271 315 339 
4 290 337 335 334 
4 174 339 307 335 
4 290 340 333 335 
4 271 350 297 339 
4 289 339 334 335 
4 166 390 212 333 
4 194 212 390 333 
4 194 333 390 340 
4 166 335 308 333 
4 134 212 166 135 
4 75 271 167 76 
4 188 209 388 195 
4 163 174 182 335 
4 195 388 340 209 
4 260 286 350 278 
4 188 195 388 337 
4 195 340 388 337 
4 260 350 286 271 
4 262 389 283 278 
4 283 353 389 370 
4 166 335 172 182 
4 194 340 209 195 
4 262 389 278 350 
4 167 339 174 173 
4 166 212 213 333 
4 194 213 212 333 
4 134 213 166 212 
4 163 182 172 335 
4 342 389 353 370 
4 167 339 179 271 
4 76 179 271 167 
4 260 350 262 278 
4 173 174 335 339 
4 334 350 389 382 
4 334 382 339 350 
4 188 337 207 195 
4 163 174 335 173 
4 166 383 335 333 
4 186 194 340 333 
4 334 337 375 342 
4 334 389 342 375 
4 262 283 389 370 
4 334 382 335 339 
4 334 335 375 337 
4 133 213 166 134 
4 167 179 339 173 
4 166 213 383 333 
4 271 338 350 339 
4 166 335 383 172 
4 76 271 179 77 
4 262 389 350 382 
4 327 335 340 337 
4 186 194 195 340 
4 260 350 271 338 
4 327 333 340 335 
4 186 213 194 333 
4 258 262 370 283 
4 260 382 262 350 
4 195 327 340 337 
4 133 166 213 177 
4 166 172 383 177 
4 342 389 370 375 
[...]
CELL_DATA	1129
SCALARS element_id double 1
LOOKUP_TABLE  default
515
33
29
15
26
635
229
222
224
63
64
1025
986
250
262
238
1077
235
234
228
233
25
1023
251
239
260
261
247
453
449
447
394
396
395
954
42
47
57
987
547
544
1024
225
226
985
964
390
442
432
433
1021
263
30
1022
227
18
1083
1078
399
397
1082
984
62
14
27
32
248
959
232
246
24
1020
446
46
543
516
401
37
454
634
957
955
20
56
548
249
435
441
41
965
514
61
53
550
60
633
389
400
65
31
445
1081
19
22
1016
398
34
434
546
404
35
16
21
450
437
52
36
982
958
55
552
468
1018
54
549
966
1017
967
436
456
553
431
17
28
23
407
983
1019
59
405
1080
545
58
1079
554
39
40
408
448
43
438
952
391
953
406
51
443
253
551
962
48
148
423
963
1102
452
846
49
38
147
847
217
439
1104
556
1101
255
45
458
451
555
457
392
778
138
960
216
126
50
1075
1103
444
149
402
1109
44
242
403
142
134
455
812
124
425
440
135
848
146
1076
935
215
430
961
133
393
254
429
139
775
130
810
125
123
811
1063
153
212
1110
1106
426
128
1105
243
137
934
129
427
140
1064
132
1058
345
122
428
336
825
209
143
244
801
136
424
800
141
127
375
380
131
1056
928
824
203
494
152
497
495
792
154
975
341
340
337
799
496
793
200
797
374
974
378
151
1057
150
491
795
144
816
783
342
843
490
808
346
488
844
891
798
780
169
938
338
817
1108
818
796
943
376
503
815
145
794
174
347
782
492
168
806
890
936
845
937
809
944
489
784
787
175
1125
349
1055
1054
1128
173
339
498
803
804
493
807
344
1061
501
316
1107
317
788
348
1060
167
172
318
1119
819
805
370
499
820
813
343
781
786
802
310
814
1124
419
178
179
889
315
314
373
888
369
1059
502
331
500
333
230
789
368
1114
312
313
319
320
790
177
311
785
170
791
942
941
176
330
976
836
461
841
68
161
361
357
325
355
837
506
76
1113
460
360
977
165
77
416
327
1123
71
1111
734
842
356
739
371
354
166
372
838
486
74
350
157
981
171
464
1112
1116
1115
487
332
69
840
324
513
155
70
1121
75
504
359
980
459
418
505
413
415
329
78
358
482
476
353
334
351
1122
1120
326
67
832
162
509
484
485
835
199
510
367
156
1117
322
839
237
158
210
202
466
968
828
829
1086
945
949
831
159
73
81
79
512
365
363
410
409
411
1118
412
417
414
328
335
947
951
388
66
978
323
321
1085
833
479
477
481
471
475
946
208
206
201
218
950
252
240
236
204
205
465
462
463
213
241
969
214
211
207
366
364
362
352
979
948
827
826
830
834
160
164
163
511
507
508
82
80
72
610
611
614
939
615
278
291
1074
84
88
95
98
307
308
112
120
667
666
670
671
10
6
183
190
192
577
576
1037
293
266
994
1099
1084
1089
754
752
755
757
997
259
1066
196
1029
197
709
711
1012
1098
972
956
991
420
421
422
971
931
541
542
539
1011
275
269
469
470
467
1031
606
1071
1035
1073
940
616
1048
922
290
94
674
193
710
1087
1090
1100
1013
1
995
996
1028
1097
1010
191
114
1036
607
97
111
5
182
668
1030
1046
83
1072
753
918
758
1049
1065
1034
90
194
923
712
990
973
673
613
970
578
3
605
270
12
121
119
13
189
1008
93
107
86
669
608
96
1096
2
672
1088
1095
195
113
9
917
924
1126
1127
756
1047
1009
910
110
909
540
87
675
89
715
188
612
676
665
1092
85
915
187
916
609
1006
11
929
1070
579
575
118
1068
116
108
92
713
1067
117
115
106
907
869
4
914
904
180
1069
186
91
861
181
109
908
1091
906
7
779
8
184
714
930
854
911
185
849
718
868
905
874
103
895
538
871
1007
572
102
1005
105
104
859
716
881
896
654
870
653
1052
921
717
860
853
1004
537
657
570
573
765
655
872
925
894
850
877
864
913
660
1053
912
865
99
1094
656
536
101
100
1129
760
569
897
855
873
659
658
920
766
919
851
571
867
560
662
857
882
661
761
862
574
856
876
776
1027
562
875
866
852
769
774
377
878
1093
561
632
886
770
992
863
567
858
1026
880
198
568
663
767
759
885
664
773
777
631
771
557
993
626
768
879
823
274
883
288
628
627
563
1015
763
564
646
276
558
286
772
652
901
625
893
535
630
892
629
645
1050
532
822
1014
273
277
379
898
637
764
884
565
762
644
533
1062
559
704
636
902
708
287
900
687
689
289
643
638
821
585
382
566
619
707
639
297
1051
887
642
743
280
534
517
650
899
640
703
688
705
744
694
647
617
903
302
589
584
281
681
648
989
621
706
519
726
474
695
736
651
927
988
299
641
690
727
272
581
1043
618
649
387
1042
691
591
480
588
731
722
729
524
594
304
595
282
721
624
677
684
742
600
685
623
745
523
750
1032
682
926
386
693
305
719
751
592
526
483
580
597
679
702
587
593
603
730
749
728
720
522
285
601
733
678
683
1033
699
384
622
747
746
696
740
590
527
998
692
686
598
220
284
478
472
528
530
1045
582
1000
271
723
1040
933
257
620
1002
306
1038
604
383
381
385
697
680
698
700
701
520
518
1044
521
1001
525
529
531
301
295
296
473
999
741
735
738
732
748
737
583
586
932
1041
292
279
223
231
221
219
298
303
268
265
267
258
256
245
1003
264
724
725
596
602
599
294
283
1039
309
300
POINT_DATA	392
SCALARS node_id double 1
LOOKUP_TABLE  default
1
2
3
4
5
6
7
8
9
10
11
12
13
14
15
16
17
18
19
20
21
22
23
24
25
26
27
28
29
30
31
32
33
34
35
36
37
38
39
40
41
42
43
44
45
46
47
48
49
50
51
52
53
54
55
56
57
58
59
60
61
62
63
64
65
66
67
68
69
70
71
72
73
74
75
76
77
78
79
80
81
82
83
84
85
86
87
88
89
90
91
92
93
94
95
96
97
98
99
100
101
102
103
104
105
106
107
108
109
110
111
112
113
114
115
116
117
118
119
120
121
122
123
124
125
126
127
128
129
130
131
132
133
134
135
136
137
138
139
140
141
142
143
144
145
146
147
148
149
150
151
152
153
154
155
156
157
158
159
160
161
162
163
164
165
166
167
168
169
170
171
172
173
174
175
176
177
178
179
180
181
182
183
184
185
186
187
188
189
190
191
192
193
194
195
196
197
198
199
200
201
202
203
204
205
206
207
208
209
210
211
212
213
214
215
216
217
218
219
220
221
222
223
224
225
226
227
228
229
230
231
232
233
234
235
236
237
238
239
240
241
242
243
244
245
246
247
248
249
250
251
252
253
254
255
256
257
258
259
260
261
262
263
264
265
266
267
268
269
270
271
272
273
274
275
276
277
278
279
280
281
282
283
284
285
286
287
288
289
290
291
292
293
294
295
296
297
298
299
300
301
302
303
304
305
306
307
308
309
310
311
312
313
314
315
316
317
318
319
320
321
322
323
324
325
326
327
328
329
330
331
332
333
334
335
336
337
338
339
340
341
342
343
344
345
346
347
348
349
350
351
352
353
354
355
356
357
358
359
360
361
362
363
364
365
366
367
368
369
370
371
372
373
374
375
376
377
378
379
380
381
382
383
384
385
386
387
388
389
390
391
392
SCALARS 2_temperature_1.s_(degC) double 1
LOOKUP_TABLE  default
22.7473
45
22.783
22.7818
22.7504
22.6828
22.6251
22.6043
22.5052
22.4521
22.5751
45
45
45
45
45
45
45
45
45
45
45
45
45
45
45
408.535
406.608
396.835
381.762
359.764
332.791
294.662
248.614
192.656
125.744
407.434
404.079
398.343
392.648
381.109
371.019
355.054
338.147
313.555
286.113
250.694
207.482
158.085
95.9799
45
45
45
45
45
45
45
45
45
45
45
45
45
45
45
45
45
45
45
45
45
45
45
45
45
45
45
45
45
45
45
45
45
45
45
45
45
45
45
45
45
45
45
45
45
45
45
45
45
45
45
45
45
45
45
45
45
45
45
45
45
45
45
45
45
45
45
45
22.614
22.4242
22.5481
22.5667
22.6447
22.6517
22.8345
22.7544
22.7878
122.461
190.077
243.258
290.133
327.2
357.202
379.849
394.867
405.613
22.6252
22.5467
22.4561
22.6477
22.5629
22.465
22.7347
22.4642
22.551
22.6636
22.3568
22.4814
22.7445
22.5903
22.6076
22.4432
22.7159
22.6883
22.3895
22.4149
22.4827
22.6221
22.7514
22.6397
288.311
161.453
206.185
322.746
247.704
128.057
390.082
179.899
206.736
272.018
111.632
162.449
351.901
246.137
283.216
159.837
319.88
365.379
110.889
140.892
230.054
119.11
341.464
321.013
301.004
230.176
344.659
274.039
353.576
148.79
238.498
150.762
159.423
262.452
385.866
349.525
230.781
276.622
204.637
158.143
88.0173
149.379
134.388
304.374
328
251.598
255.006
320.226
166.236
377.335
203.807
93.7238
399.445
377.295
134.366
158.24
227.204
238.695
98.9368
305.166
45
45
45
45
45
45
45
45
45
45
45
45
45
45
45
45
45
45
45
45
45
45
45
45
45
45
45
45
45
45
45
45
45
45
45
45
45
45
45
45
45
45
45
45
45
45
45
45
45
45
45
45
45
45
45
45
45
45
45
45
45
45
45
45
45
45
45
314.314
233.43
290.161
357.576
134.295
353.192
238.593
153.686
148.971
276.158
183.894
239.232
358.925
213.039
271.014
392.023
97.9461
140.575
305.42
137.092
331.839
377.123
324.064
222.377
197.634
140.736
314.485
107.298
151.565
249.022
379.636
400.004
264.175
193.174
102.497
221.092
280.97
224.455
173.125
187.727
313.279
122.092
118.215
170.983
265.389
166.619
383.777
283.134
337.577
158.556
345.249
160.054
241.736
381.068
86.493
236.513
99.7009
107.457
65.8293
403.682
131.89
117.995
288.026
168.449
225.793
138.29
139.203
80.6214
76.8764
154.224
262.222
78.906
95.7663
100.099
120.259
113.356
70.4972
68.5056
195.358
59.4415
118.895
196.653
106.829
154.581
121.823
261.985
129.105
91.6098
275.552
58.9453
210.734
94.8941
94.154
200.126
98.6089
205.317
357.428
331.586
108.772
158.664
109.032
369.353
198.84
398.452
87.3355
